+ 0.5 0 2 cbr 500 ------- 1 0.0 3.0 0 0
- 0.5 0 2 cbr 500 ------- 1 0.0 3.0 0 0
+ 0.505 0 2 cbr 500 ------- 1 0.0 3.0 1 1
- 0.505 0 2 cbr 500 ------- 1 0.0 3.0 1 1
+ 0.51 0 2 cbr 500 ------- 1 0.0 3.0 2 2
- 0.51 0 2 cbr 500 ------- 1 0.0 3.0 2 2
r 0.514 0 2 cbr 500 ------- 1 0.0 3.0 0 0
+ 0.514 2 3 cbr 500 ------- 1 0.0 3.0 0 0
- 0.514 2 3 cbr 500 ------- 1 0.0 3.0 0 0
+ 0.515 0 2 cbr 500 ------- 1 0.0 3.0 3 3
- 0.515 0 2 cbr 500 ------- 1 0.0 3.0 3 3
r 0.519 0 2 cbr 500 ------- 1 0.0 3.0 1 1
+ 0.519 2 3 cbr 500 ------- 1 0.0 3.0 1 1
- 0.519 2 3 cbr 500 ------- 1 0.0 3.0 1 1
+ 0.52 0 2 cbr 500 ------- 1 0.0 3.0 4 4
- 0.52 0 2 cbr 500 ------- 1 0.0 3.0 4 4
r 0.524 0 2 cbr 500 ------- 1 0.0 3.0 2 2
+ 0.524 2 3 cbr 500 ------- 1 0.0 3.0 2 2
- 0.524 2 3 cbr 500 ------- 1 0.0 3.0 2 2
+ 0.525 0 2 cbr 500 ------- 1 0.0 3.0 5 5
- 0.525 0 2 cbr 500 ------- 1 0.0 3.0 5 5
r 0.528 2 3 cbr 500 ------- 1 0.0 3.0 0 0
r 0.529 0 2 cbr 500 ------- 1 0.0 3.0 3 3
+ 0.529 2 3 cbr 500 ------- 1 0.0 3.0 3 3
- 0.529 2 3 cbr 500 ------- 1 0.0 3.0 3 3
+ 0.53 0 2 cbr 500 ------- 1 0.0 3.0 6 6
- 0.53 0 2 cbr 500 ------- 1 0.0 3.0 6 6
r 0.533 2 3 cbr 500 ------- 1 0.0 3.0 1 1
r 0.534 0 2 cbr 500 ------- 1 0.0 3.0 4 4
+ 0.534 2 3 cbr 500 ------- 1 0.0 3.0 4 4
- 0.534 2 3 cbr 500 ------- 1 0.0 3.0 4 4
+ 0.535 0 2 cbr 500 ------- 1 0.0 3.0 7 7
- 0.535 0 2 cbr 500 ------- 1 0.0 3.0 7 7
r 0.538 2 3 cbr 500 ------- 1 0.0 3.0 2 2
r 0.539 0 2 cbr 500 ------- 1 0.0 3.0 5 5
+ 0.539 2 3 cbr 500 ------- 1 0.0 3.0 5 5
- 0.539 2 3 cbr 500 ------- 1 0.0 3.0 5 5
+ 0.54 0 2 cbr 500 ------- 1 0.0 3.0 8 8
- 0.54 0 2 cbr 500 ------- 1 0.0 3.0 8 8
r 0.543 2 3 cbr 500 ------- 1 0.0 3.0 3 3
r 0.544 0 2 cbr 500 ------- 1 0.0 3.0 6 6
+ 0.544 2 3 cbr 500 ------- 1 0.0 3.0 6 6
- 0.544 2 3 cbr 500 ------- 1 0.0 3.0 6 6
+ 0.545 0 2 cbr 500 ------- 1 0.0 3.0 9 9
- 0.545 0 2 cbr 500 ------- 1 0.0 3.0 9 9
r 0.548 2 3 cbr 500 ------- 1 0.0 3.0 4 4
r 0.549 0 2 cbr 500 ------- 1 0.0 3.0 7 7
+ 0.549 2 3 cbr 500 ------- 1 0.0 3.0 7 7
- 0.549 2 3 cbr 500 ------- 1 0.0 3.0 7 7
+ 0.55 0 2 cbr 500 ------- 1 0.0 3.0 10 10
- 0.55 0 2 cbr 500 ------- 1 0.0 3.0 10 10
r 0.553 2 3 cbr 500 ------- 1 0.0 3.0 5 5
r 0.554 0 2 cbr 500 ------- 1 0.0 3.0 8 8
+ 0.554 2 3 cbr 500 ------- 1 0.0 3.0 8 8
- 0.554 2 3 cbr 500 ------- 1 0.0 3.0 8 8
+ 0.555 0 2 cbr 500 ------- 1 0.0 3.0 11 11
- 0.555 0 2 cbr 500 ------- 1 0.0 3.0 11 11
r 0.558 2 3 cbr 500 ------- 1 0.0 3.0 6 6
r 0.559 0 2 cbr 500 ------- 1 0.0 3.0 9 9
+ 0.559 2 3 cbr 500 ------- 1 0.0 3.0 9 9
- 0.559 2 3 cbr 500 ------- 1 0.0 3.0 9 9
+ 0.56 0 2 cbr 500 ------- 1 0.0 3.0 12 12
- 0.56 0 2 cbr 500 ------- 1 0.0 3.0 12 12
r 0.563 2 3 cbr 500 ------- 1 0.0 3.0 7 7
r 0.564 0 2 cbr 500 ------- 1 0.0 3.0 10 10
+ 0.564 2 3 cbr 500 ------- 1 0.0 3.0 10 10
- 0.564 2 3 cbr 500 ------- 1 0.0 3.0 10 10
+ 0.565 0 2 cbr 500 ------- 1 0.0 3.0 13 13
- 0.565 0 2 cbr 500 ------- 1 0.0 3.0 13 13
r 0.568 2 3 cbr 500 ------- 1 0.0 3.0 8 8
r 0.569 0 2 cbr 500 ------- 1 0.0 3.0 11 11
+ 0.569 2 3 cbr 500 ------- 1 0.0 3.0 11 11
- 0.569 2 3 cbr 500 ------- 1 0.0 3.0 11 11
+ 0.57 0 2 cbr 500 ------- 1 0.0 3.0 14 14
- 0.57 0 2 cbr 500 ------- 1 0.0 3.0 14 14
r 0.573 2 3 cbr 500 ------- 1 0.0 3.0 9 9
r 0.574 0 2 cbr 500 ------- 1 0.0 3.0 12 12
+ 0.574 2 3 cbr 500 ------- 1 0.0 3.0 12 12
- 0.574 2 3 cbr 500 ------- 1 0.0 3.0 12 12
+ 0.575 0 2 cbr 500 ------- 1 0.0 3.0 15 15
- 0.575 0 2 cbr 500 ------- 1 0.0 3.0 15 15
r 0.578 2 3 cbr 500 ------- 1 0.0 3.0 10 10
r 0.579 0 2 cbr 500 ------- 1 0.0 3.0 13 13
+ 0.579 2 3 cbr 500 ------- 1 0.0 3.0 13 13
- 0.579 2 3 cbr 500 ------- 1 0.0 3.0 13 13
+ 0.58 0 2 cbr 500 ------- 1 0.0 3.0 16 16
- 0.58 0 2 cbr 500 ------- 1 0.0 3.0 16 16
r 0.583 2 3 cbr 500 ------- 1 0.0 3.0 11 11
r 0.584 0 2 cbr 500 ------- 1 0.0 3.0 14 14
+ 0.584 2 3 cbr 500 ------- 1 0.0 3.0 14 14
- 0.584 2 3 cbr 500 ------- 1 0.0 3.0 14 14
+ 0.585 0 2 cbr 500 ------- 1 0.0 3.0 17 17
- 0.585 0 2 cbr 500 ------- 1 0.0 3.0 17 17
r 0.588 2 3 cbr 500 ------- 1 0.0 3.0 12 12
r 0.589 0 2 cbr 500 ------- 1 0.0 3.0 15 15
+ 0.589 2 3 cbr 500 ------- 1 0.0 3.0 15 15
- 0.589 2 3 cbr 500 ------- 1 0.0 3.0 15 15
+ 0.59 0 2 cbr 500 ------- 1 0.0 3.0 18 18
- 0.59 0 2 cbr 500 ------- 1 0.0 3.0 18 18
r 0.593 2 3 cbr 500 ------- 1 0.0 3.0 13 13
r 0.594 0 2 cbr 500 ------- 1 0.0 3.0 16 16
+ 0.594 2 3 cbr 500 ------- 1 0.0 3.0 16 16
- 0.594 2 3 cbr 500 ------- 1 0.0 3.0 16 16
+ 0.595 0 2 cbr 500 ------- 1 0.0 3.0 19 19
- 0.595 0 2 cbr 500 ------- 1 0.0 3.0 19 19
r 0.598 2 3 cbr 500 ------- 1 0.0 3.0 14 14
r 0.599 0 2 cbr 500 ------- 1 0.0 3.0 17 17
+ 0.599 2 3 cbr 500 ------- 1 0.0 3.0 17 17
- 0.599 2 3 cbr 500 ------- 1 0.0 3.0 17 17
+ 0.6 0 2 cbr 500 ------- 1 0.0 3.0 20 20
- 0.6 0 2 cbr 500 ------- 1 0.0 3.0 20 20
r 0.603 2 3 cbr 500 ------- 1 0.0 3.0 15 15
r 0.604 0 2 cbr 500 ------- 1 0.0 3.0 18 18
+ 0.604 2 3 cbr 500 ------- 1 0.0 3.0 18 18
- 0.604 2 3 cbr 500 ------- 1 0.0 3.0 18 18
+ 0.605 0 2 cbr 500 ------- 1 0.0 3.0 21 21
- 0.605 0 2 cbr 500 ------- 1 0.0 3.0 21 21
r 0.608 2 3 cbr 500 ------- 1 0.0 3.0 16 16
r 0.609 0 2 cbr 500 ------- 1 0.0 3.0 19 19
+ 0.609 2 3 cbr 500 ------- 1 0.0 3.0 19 19
- 0.609 2 3 cbr 500 ------- 1 0.0 3.0 19 19
+ 0.61 0 2 cbr 500 ------- 1 0.0 3.0 22 22
- 0.61 0 2 cbr 500 ------- 1 0.0 3.0 22 22
r 0.613 2 3 cbr 500 ------- 1 0.0 3.0 17 17
r 0.614 0 2 cbr 500 ------- 1 0.0 3.0 20 20
+ 0.614 2 3 cbr 500 ------- 1 0.0 3.0 20 20
- 0.614 2 3 cbr 500 ------- 1 0.0 3.0 20 20
+ 0.615 0 2 cbr 500 ------- 1 0.0 3.0 23 23
- 0.615 0 2 cbr 500 ------- 1 0.0 3.0 23 23
r 0.618 2 3 cbr 500 ------- 1 0.0 3.0 18 18
r 0.619 0 2 cbr 500 ------- 1 0.0 3.0 21 21
+ 0.619 2 3 cbr 500 ------- 1 0.0 3.0 21 21
- 0.619 2 3 cbr 500 ------- 1 0.0 3.0 21 21
+ 0.62 0 2 cbr 500 ------- 1 0.0 3.0 24 24
- 0.62 0 2 cbr 500 ------- 1 0.0 3.0 24 24
r 0.623 2 3 cbr 500 ------- 1 0.0 3.0 19 19
r 0.624 0 2 cbr 500 ------- 1 0.0 3.0 22 22
+ 0.624 2 3 cbr 500 ------- 1 0.0 3.0 22 22
- 0.624 2 3 cbr 500 ------- 1 0.0 3.0 22 22
+ 0.625 0 2 cbr 500 ------- 1 0.0 3.0 25 25
- 0.625 0 2 cbr 500 ------- 1 0.0 3.0 25 25
r 0.628 2 3 cbr 500 ------- 1 0.0 3.0 20 20
r 0.629 0 2 cbr 500 ------- 1 0.0 3.0 23 23
+ 0.629 2 3 cbr 500 ------- 1 0.0 3.0 23 23
- 0.629 2 3 cbr 500 ------- 1 0.0 3.0 23 23
+ 0.63 0 2 cbr 500 ------- 1 0.0 3.0 26 26
- 0.63 0 2 cbr 500 ------- 1 0.0 3.0 26 26
r 0.633 2 3 cbr 500 ------- 1 0.0 3.0 21 21
r 0.634 0 2 cbr 500 ------- 1 0.0 3.0 24 24
+ 0.634 2 3 cbr 500 ------- 1 0.0 3.0 24 24
- 0.634 2 3 cbr 500 ------- 1 0.0 3.0 24 24
+ 0.635 0 2 cbr 500 ------- 1 0.0 3.0 27 27
- 0.635 0 2 cbr 500 ------- 1 0.0 3.0 27 27
r 0.638 2 3 cbr 500 ------- 1 0.0 3.0 22 22
r 0.639 0 2 cbr 500 ------- 1 0.0 3.0 25 25
+ 0.639 2 3 cbr 500 ------- 1 0.0 3.0 25 25
- 0.639 2 3 cbr 500 ------- 1 0.0 3.0 25 25
+ 0.64 0 2 cbr 500 ------- 1 0.0 3.0 28 28
- 0.64 0 2 cbr 500 ------- 1 0.0 3.0 28 28
r 0.643 2 3 cbr 500 ------- 1 0.0 3.0 23 23
r 0.644 0 2 cbr 500 ------- 1 0.0 3.0 26 26
+ 0.644 2 3 cbr 500 ------- 1 0.0 3.0 26 26
- 0.644 2 3 cbr 500 ------- 1 0.0 3.0 26 26
+ 0.645 0 2 cbr 500 ------- 1 0.0 3.0 29 29
- 0.645 0 2 cbr 500 ------- 1 0.0 3.0 29 29
r 0.648 2 3 cbr 500 ------- 1 0.0 3.0 24 24
r 0.649 0 2 cbr 500 ------- 1 0.0 3.0 27 27
+ 0.649 2 3 cbr 500 ------- 1 0.0 3.0 27 27
- 0.649 2 3 cbr 500 ------- 1 0.0 3.0 27 27
+ 0.65 0 2 cbr 500 ------- 1 0.0 3.0 30 30
- 0.65 0 2 cbr 500 ------- 1 0.0 3.0 30 30
r 0.653 2 3 cbr 500 ------- 1 0.0 3.0 25 25
r 0.654 0 2 cbr 500 ------- 1 0.0 3.0 28 28
+ 0.654 2 3 cbr 500 ------- 1 0.0 3.0 28 28
- 0.654 2 3 cbr 500 ------- 1 0.0 3.0 28 28
+ 0.655 0 2 cbr 500 ------- 1 0.0 3.0 31 31
- 0.655 0 2 cbr 500 ------- 1 0.0 3.0 31 31
r 0.658 2 3 cbr 500 ------- 1 0.0 3.0 26 26
r 0.659 0 2 cbr 500 ------- 1 0.0 3.0 29 29
+ 0.659 2 3 cbr 500 ------- 1 0.0 3.0 29 29
- 0.659 2 3 cbr 500 ------- 1 0.0 3.0 29 29
+ 0.66 0 2 cbr 500 ------- 1 0.0 3.0 32 32
- 0.66 0 2 cbr 500 ------- 1 0.0 3.0 32 32
r 0.663 2 3 cbr 500 ------- 1 0.0 3.0 27 27
r 0.664 0 2 cbr 500 ------- 1 0.0 3.0 30 30
+ 0.664 2 3 cbr 500 ------- 1 0.0 3.0 30 30
- 0.664 2 3 cbr 500 ------- 1 0.0 3.0 30 30
+ 0.665 0 2 cbr 500 ------- 1 0.0 3.0 33 33
- 0.665 0 2 cbr 500 ------- 1 0.0 3.0 33 33
r 0.668 2 3 cbr 500 ------- 1 0.0 3.0 28 28
r 0.669 0 2 cbr 500 ------- 1 0.0 3.0 31 31
+ 0.669 2 3 cbr 500 ------- 1 0.0 3.0 31 31
- 0.669 2 3 cbr 500 ------- 1 0.0 3.0 31 31
+ 0.67 0 2 cbr 500 ------- 1 0.0 3.0 34 34
- 0.67 0 2 cbr 500 ------- 1 0.0 3.0 34 34
r 0.673 2 3 cbr 500 ------- 1 0.0 3.0 29 29
r 0.674 0 2 cbr 500 ------- 1 0.0 3.0 32 32
+ 0.674 2 3 cbr 500 ------- 1 0.0 3.0 32 32
- 0.674 2 3 cbr 500 ------- 1 0.0 3.0 32 32
+ 0.675 0 2 cbr 500 ------- 1 0.0 3.0 35 35
- 0.675 0 2 cbr 500 ------- 1 0.0 3.0 35 35
r 0.678 2 3 cbr 500 ------- 1 0.0 3.0 30 30
r 0.679 0 2 cbr 500 ------- 1 0.0 3.0 33 33
+ 0.679 2 3 cbr 500 ------- 1 0.0 3.0 33 33
- 0.679 2 3 cbr 500 ------- 1 0.0 3.0 33 33
+ 0.68 0 2 cbr 500 ------- 1 0.0 3.0 36 36
- 0.68 0 2 cbr 500 ------- 1 0.0 3.0 36 36
r 0.683 2 3 cbr 500 ------- 1 0.0 3.0 31 31
r 0.684 0 2 cbr 500 ------- 1 0.0 3.0 34 34
+ 0.684 2 3 cbr 500 ------- 1 0.0 3.0 34 34
- 0.684 2 3 cbr 500 ------- 1 0.0 3.0 34 34
+ 0.685 0 2 cbr 500 ------- 1 0.0 3.0 37 37
- 0.685 0 2 cbr 500 ------- 1 0.0 3.0 37 37
r 0.688 2 3 cbr 500 ------- 1 0.0 3.0 32 32
r 0.689 0 2 cbr 500 ------- 1 0.0 3.0 35 35
+ 0.689 2 3 cbr 500 ------- 1 0.0 3.0 35 35
- 0.689 2 3 cbr 500 ------- 1 0.0 3.0 35 35
+ 0.69 0 2 cbr 500 ------- 1 0.0 3.0 38 38
- 0.69 0 2 cbr 500 ------- 1 0.0 3.0 38 38
r 0.693 2 3 cbr 500 ------- 1 0.0 3.0 33 33
r 0.694 0 2 cbr 500 ------- 1 0.0 3.0 36 36
+ 0.694 2 3 cbr 500 ------- 1 0.0 3.0 36 36
- 0.694 2 3 cbr 500 ------- 1 0.0 3.0 36 36
+ 0.695 0 2 cbr 500 ------- 1 0.0 3.0 39 39
- 0.695 0 2 cbr 500 ------- 1 0.0 3.0 39 39
r 0.698 2 3 cbr 500 ------- 1 0.0 3.0 34 34
r 0.699 0 2 cbr 500 ------- 1 0.0 3.0 37 37
+ 0.699 2 3 cbr 500 ------- 1 0.0 3.0 37 37
- 0.699 2 3 cbr 500 ------- 1 0.0 3.0 37 37
+ 0.7 0 2 cbr 500 ------- 1 0.0 3.0 40 40
- 0.7 0 2 cbr 500 ------- 1 0.0 3.0 40 40
r 0.703 2 3 cbr 500 ------- 1 0.0 3.0 35 35
r 0.704 0 2 cbr 500 ------- 1 0.0 3.0 38 38
+ 0.704 2 3 cbr 500 ------- 1 0.0 3.0 38 38
- 0.704 2 3 cbr 500 ------- 1 0.0 3.0 38 38
+ 0.705 0 2 cbr 500 ------- 1 0.0 3.0 41 41
- 0.705 0 2 cbr 500 ------- 1 0.0 3.0 41 41
r 0.708 2 3 cbr 500 ------- 1 0.0 3.0 36 36
r 0.709 0 2 cbr 500 ------- 1 0.0 3.0 39 39
+ 0.709 2 3 cbr 500 ------- 1 0.0 3.0 39 39
- 0.709 2 3 cbr 500 ------- 1 0.0 3.0 39 39
+ 0.71 0 2 cbr 500 ------- 1 0.0 3.0 42 42
- 0.71 0 2 cbr 500 ------- 1 0.0 3.0 42 42
r 0.713 2 3 cbr 500 ------- 1 0.0 3.0 37 37
r 0.714 0 2 cbr 500 ------- 1 0.0 3.0 40 40
+ 0.714 2 3 cbr 500 ------- 1 0.0 3.0 40 40
- 0.714 2 3 cbr 500 ------- 1 0.0 3.0 40 40
+ 0.715 0 2 cbr 500 ------- 1 0.0 3.0 43 43
- 0.715 0 2 cbr 500 ------- 1 0.0 3.0 43 43
r 0.718 2 3 cbr 500 ------- 1 0.0 3.0 38 38
r 0.719 0 2 cbr 500 ------- 1 0.0 3.0 41 41
+ 0.719 2 3 cbr 500 ------- 1 0.0 3.0 41 41
- 0.719 2 3 cbr 500 ------- 1 0.0 3.0 41 41
+ 0.72 0 2 cbr 500 ------- 1 0.0 3.0 44 44
- 0.72 0 2 cbr 500 ------- 1 0.0 3.0 44 44
r 0.723 2 3 cbr 500 ------- 1 0.0 3.0 39 39
r 0.724 0 2 cbr 500 ------- 1 0.0 3.0 42 42
+ 0.724 2 3 cbr 500 ------- 1 0.0 3.0 42 42
- 0.724 2 3 cbr 500 ------- 1 0.0 3.0 42 42
+ 0.725 0 2 cbr 500 ------- 1 0.0 3.0 45 45
- 0.725 0 2 cbr 500 ------- 1 0.0 3.0 45 45
r 0.728 2 3 cbr 500 ------- 1 0.0 3.0 40 40
r 0.729 0 2 cbr 500 ------- 1 0.0 3.0 43 43
+ 0.729 2 3 cbr 500 ------- 1 0.0 3.0 43 43
- 0.729 2 3 cbr 500 ------- 1 0.0 3.0 43 43
+ 0.73 0 2 cbr 500 ------- 1 0.0 3.0 46 46
- 0.73 0 2 cbr 500 ------- 1 0.0 3.0 46 46
r 0.733 2 3 cbr 500 ------- 1 0.0 3.0 41 41
r 0.734 0 2 cbr 500 ------- 1 0.0 3.0 44 44
+ 0.734 2 3 cbr 500 ------- 1 0.0 3.0 44 44
- 0.734 2 3 cbr 500 ------- 1 0.0 3.0 44 44
+ 0.735 0 2 cbr 500 ------- 1 0.0 3.0 47 47
- 0.735 0 2 cbr 500 ------- 1 0.0 3.0 47 47
r 0.738 2 3 cbr 500 ------- 1 0.0 3.0 42 42
r 0.739 0 2 cbr 500 ------- 1 0.0 3.0 45 45
+ 0.739 2 3 cbr 500 ------- 1 0.0 3.0 45 45
- 0.739 2 3 cbr 500 ------- 1 0.0 3.0 45 45
+ 0.74 0 2 cbr 500 ------- 1 0.0 3.0 48 48
- 0.74 0 2 cbr 500 ------- 1 0.0 3.0 48 48
r 0.743 2 3 cbr 500 ------- 1 0.0 3.0 43 43
r 0.744 0 2 cbr 500 ------- 1 0.0 3.0 46 46
+ 0.744 2 3 cbr 500 ------- 1 0.0 3.0 46 46
- 0.744 2 3 cbr 500 ------- 1 0.0 3.0 46 46
+ 0.745 0 2 cbr 500 ------- 1 0.0 3.0 49 49
- 0.745 0 2 cbr 500 ------- 1 0.0 3.0 49 49
r 0.748 2 3 cbr 500 ------- 1 0.0 3.0 44 44
r 0.749 0 2 cbr 500 ------- 1 0.0 3.0 47 47
+ 0.749 2 3 cbr 500 ------- 1 0.0 3.0 47 47
- 0.749 2 3 cbr 500 ------- 1 0.0 3.0 47 47
+ 0.75 0 2 cbr 500 ------- 1 0.0 3.0 50 50
- 0.75 0 2 cbr 500 ------- 1 0.0 3.0 50 50
r 0.753 2 3 cbr 500 ------- 1 0.0 3.0 45 45
r 0.754 0 2 cbr 500 ------- 1 0.0 3.0 48 48
+ 0.754 2 3 cbr 500 ------- 1 0.0 3.0 48 48
- 0.754 2 3 cbr 500 ------- 1 0.0 3.0 48 48
+ 0.755 0 2 cbr 500 ------- 1 0.0 3.0 51 51
- 0.755 0 2 cbr 500 ------- 1 0.0 3.0 51 51
r 0.758 2 3 cbr 500 ------- 1 0.0 3.0 46 46
r 0.759 0 2 cbr 500 ------- 1 0.0 3.0 49 49
+ 0.759 2 3 cbr 500 ------- 1 0.0 3.0 49 49
- 0.759 2 3 cbr 500 ------- 1 0.0 3.0 49 49
+ 0.76 0 2 cbr 500 ------- 1 0.0 3.0 52 52
- 0.76 0 2 cbr 500 ------- 1 0.0 3.0 52 52
r 0.763 2 3 cbr 500 ------- 1 0.0 3.0 47 47
r 0.764 0 2 cbr 500 ------- 1 0.0 3.0 50 50
+ 0.764 2 3 cbr 500 ------- 1 0.0 3.0 50 50
- 0.764 2 3 cbr 500 ------- 1 0.0 3.0 50 50
+ 0.765 0 2 cbr 500 ------- 1 0.0 3.0 53 53
- 0.765 0 2 cbr 500 ------- 1 0.0 3.0 53 53
r 0.768 2 3 cbr 500 ------- 1 0.0 3.0 48 48
r 0.769 0 2 cbr 500 ------- 1 0.0 3.0 51 51
+ 0.769 2 3 cbr 500 ------- 1 0.0 3.0 51 51
- 0.769 2 3 cbr 500 ------- 1 0.0 3.0 51 51
+ 0.77 0 2 cbr 500 ------- 1 0.0 3.0 54 54
- 0.77 0 2 cbr 500 ------- 1 0.0 3.0 54 54
r 0.773 2 3 cbr 500 ------- 1 0.0 3.0 49 49
r 0.774 0 2 cbr 500 ------- 1 0.0 3.0 52 52
+ 0.774 2 3 cbr 500 ------- 1 0.0 3.0 52 52
- 0.774 2 3 cbr 500 ------- 1 0.0 3.0 52 52
+ 0.775 0 2 cbr 500 ------- 1 0.0 3.0 55 55
- 0.775 0 2 cbr 500 ------- 1 0.0 3.0 55 55
r 0.778 2 3 cbr 500 ------- 1 0.0 3.0 50 50
r 0.779 0 2 cbr 500 ------- 1 0.0 3.0 53 53
+ 0.779 2 3 cbr 500 ------- 1 0.0 3.0 53 53
- 0.779 2 3 cbr 500 ------- 1 0.0 3.0 53 53
+ 0.78 0 2 cbr 500 ------- 1 0.0 3.0 56 56
- 0.78 0 2 cbr 500 ------- 1 0.0 3.0 56 56
r 0.783 2 3 cbr 500 ------- 1 0.0 3.0 51 51
r 0.784 0 2 cbr 500 ------- 1 0.0 3.0 54 54
+ 0.784 2 3 cbr 500 ------- 1 0.0 3.0 54 54
- 0.784 2 3 cbr 500 ------- 1 0.0 3.0 54 54
+ 0.785 0 2 cbr 500 ------- 1 0.0 3.0 57 57
- 0.785 0 2 cbr 500 ------- 1 0.0 3.0 57 57
r 0.788 2 3 cbr 500 ------- 1 0.0 3.0 52 52
r 0.789 0 2 cbr 500 ------- 1 0.0 3.0 55 55
+ 0.789 2 3 cbr 500 ------- 1 0.0 3.0 55 55
- 0.789 2 3 cbr 500 ------- 1 0.0 3.0 55 55
+ 0.79 0 2 cbr 500 ------- 1 0.0 3.0 58 58
- 0.79 0 2 cbr 500 ------- 1 0.0 3.0 58 58
r 0.793 2 3 cbr 500 ------- 1 0.0 3.0 53 53
r 0.794 0 2 cbr 500 ------- 1 0.0 3.0 56 56
+ 0.794 2 3 cbr 500 ------- 1 0.0 3.0 56 56
- 0.794 2 3 cbr 500 ------- 1 0.0 3.0 56 56
+ 0.795 0 2 cbr 500 ------- 1 0.0 3.0 59 59
- 0.795 0 2 cbr 500 ------- 1 0.0 3.0 59 59
r 0.798 2 3 cbr 500 ------- 1 0.0 3.0 54 54
r 0.799 0 2 cbr 500 ------- 1 0.0 3.0 57 57
+ 0.799 2 3 cbr 500 ------- 1 0.0 3.0 57 57
- 0.799 2 3 cbr 500 ------- 1 0.0 3.0 57 57
+ 0.8 0 2 cbr 500 ------- 1 0.0 3.0 60 60
- 0.8 0 2 cbr 500 ------- 1 0.0 3.0 60 60
r 0.803 2 3 cbr 500 ------- 1 0.0 3.0 55 55
r 0.804 0 2 cbr 500 ------- 1 0.0 3.0 58 58
+ 0.804 2 3 cbr 500 ------- 1 0.0 3.0 58 58
- 0.804 2 3 cbr 500 ------- 1 0.0 3.0 58 58
+ 0.805 0 2 cbr 500 ------- 1 0.0 3.0 61 61
- 0.805 0 2 cbr 500 ------- 1 0.0 3.0 61 61
r 0.808 2 3 cbr 500 ------- 1 0.0 3.0 56 56
r 0.809 0 2 cbr 500 ------- 1 0.0 3.0 59 59
+ 0.809 2 3 cbr 500 ------- 1 0.0 3.0 59 59
- 0.809 2 3 cbr 500 ------- 1 0.0 3.0 59 59
+ 0.81 0 2 cbr 500 ------- 1 0.0 3.0 62 62
- 0.81 0 2 cbr 500 ------- 1 0.0 3.0 62 62
r 0.813 2 3 cbr 500 ------- 1 0.0 3.0 57 57
r 0.814 0 2 cbr 500 ------- 1 0.0 3.0 60 60
+ 0.814 2 3 cbr 500 ------- 1 0.0 3.0 60 60
- 0.814 2 3 cbr 500 ------- 1 0.0 3.0 60 60
+ 0.815 0 2 cbr 500 ------- 1 0.0 3.0 63 63
- 0.815 0 2 cbr 500 ------- 1 0.0 3.0 63 63
r 0.818 2 3 cbr 500 ------- 1 0.0 3.0 58 58
r 0.819 0 2 cbr 500 ------- 1 0.0 3.0 61 61
+ 0.819 2 3 cbr 500 ------- 1 0.0 3.0 61 61
- 0.819 2 3 cbr 500 ------- 1 0.0 3.0 61 61
+ 0.82 0 2 cbr 500 ------- 1 0.0 3.0 64 64
- 0.82 0 2 cbr 500 ------- 1 0.0 3.0 64 64
r 0.823 2 3 cbr 500 ------- 1 0.0 3.0 59 59
r 0.824 0 2 cbr 500 ------- 1 0.0 3.0 62 62
+ 0.824 2 3 cbr 500 ------- 1 0.0 3.0 62 62
- 0.824 2 3 cbr 500 ------- 1 0.0 3.0 62 62
+ 0.825 0 2 cbr 500 ------- 1 0.0 3.0 65 65
- 0.825 0 2 cbr 500 ------- 1 0.0 3.0 65 65
r 0.828 2 3 cbr 500 ------- 1 0.0 3.0 60 60
r 0.829 0 2 cbr 500 ------- 1 0.0 3.0 63 63
+ 0.829 2 3 cbr 500 ------- 1 0.0 3.0 63 63
- 0.829 2 3 cbr 500 ------- 1 0.0 3.0 63 63
+ 0.83 0 2 cbr 500 ------- 1 0.0 3.0 66 66
- 0.83 0 2 cbr 500 ------- 1 0.0 3.0 66 66
r 0.833 2 3 cbr 500 ------- 1 0.0 3.0 61 61
r 0.834 0 2 cbr 500 ------- 1 0.0 3.0 64 64
+ 0.834 2 3 cbr 500 ------- 1 0.0 3.0 64 64
- 0.834 2 3 cbr 500 ------- 1 0.0 3.0 64 64
+ 0.835 0 2 cbr 500 ------- 1 0.0 3.0 67 67
- 0.835 0 2 cbr 500 ------- 1 0.0 3.0 67 67
r 0.838 2 3 cbr 500 ------- 1 0.0 3.0 62 62
r 0.839 0 2 cbr 500 ------- 1 0.0 3.0 65 65
+ 0.839 2 3 cbr 500 ------- 1 0.0 3.0 65 65
- 0.839 2 3 cbr 500 ------- 1 0.0 3.0 65 65
+ 0.84 0 2 cbr 500 ------- 1 0.0 3.0 68 68
- 0.84 0 2 cbr 500 ------- 1 0.0 3.0 68 68
r 0.843 2 3 cbr 500 ------- 1 0.0 3.0 63 63
r 0.844 0 2 cbr 500 ------- 1 0.0 3.0 66 66
+ 0.844 2 3 cbr 500 ------- 1 0.0 3.0 66 66
- 0.844 2 3 cbr 500 ------- 1 0.0 3.0 66 66
+ 0.845 0 2 cbr 500 ------- 1 0.0 3.0 69 69
- 0.845 0 2 cbr 500 ------- 1 0.0 3.0 69 69
r 0.848 2 3 cbr 500 ------- 1 0.0 3.0 64 64
r 0.849 0 2 cbr 500 ------- 1 0.0 3.0 67 67
+ 0.849 2 3 cbr 500 ------- 1 0.0 3.0 67 67
- 0.849 2 3 cbr 500 ------- 1 0.0 3.0 67 67
+ 0.85 0 2 cbr 500 ------- 1 0.0 3.0 70 70
- 0.85 0 2 cbr 500 ------- 1 0.0 3.0 70 70
r 0.853 2 3 cbr 500 ------- 1 0.0 3.0 65 65
r 0.854 0 2 cbr 500 ------- 1 0.0 3.0 68 68
+ 0.854 2 3 cbr 500 ------- 1 0.0 3.0 68 68
- 0.854 2 3 cbr 500 ------- 1 0.0 3.0 68 68
+ 0.855 0 2 cbr 500 ------- 1 0.0 3.0 71 71
- 0.855 0 2 cbr 500 ------- 1 0.0 3.0 71 71
r 0.858 2 3 cbr 500 ------- 1 0.0 3.0 66 66
r 0.859 0 2 cbr 500 ------- 1 0.0 3.0 69 69
+ 0.859 2 3 cbr 500 ------- 1 0.0 3.0 69 69
- 0.859 2 3 cbr 500 ------- 1 0.0 3.0 69 69
+ 0.86 0 2 cbr 500 ------- 1 0.0 3.0 72 72
- 0.86 0 2 cbr 500 ------- 1 0.0 3.0 72 72
r 0.863 2 3 cbr 500 ------- 1 0.0 3.0 67 67
r 0.864 0 2 cbr 500 ------- 1 0.0 3.0 70 70
+ 0.864 2 3 cbr 500 ------- 1 0.0 3.0 70 70
- 0.864 2 3 cbr 500 ------- 1 0.0 3.0 70 70
+ 0.865 0 2 cbr 500 ------- 1 0.0 3.0 73 73
- 0.865 0 2 cbr 500 ------- 1 0.0 3.0 73 73
r 0.868 2 3 cbr 500 ------- 1 0.0 3.0 68 68
r 0.869 0 2 cbr 500 ------- 1 0.0 3.0 71 71
+ 0.869 2 3 cbr 500 ------- 1 0.0 3.0 71 71
- 0.869 2 3 cbr 500 ------- 1 0.0 3.0 71 71
+ 0.87 0 2 cbr 500 ------- 1 0.0 3.0 74 74
- 0.87 0 2 cbr 500 ------- 1 0.0 3.0 74 74
r 0.873 2 3 cbr 500 ------- 1 0.0 3.0 69 69
r 0.874 0 2 cbr 500 ------- 1 0.0 3.0 72 72
+ 0.874 2 3 cbr 500 ------- 1 0.0 3.0 72 72
- 0.874 2 3 cbr 500 ------- 1 0.0 3.0 72 72
+ 0.875 0 2 cbr 500 ------- 1 0.0 3.0 75 75
- 0.875 0 2 cbr 500 ------- 1 0.0 3.0 75 75
r 0.878 2 3 cbr 500 ------- 1 0.0 3.0 70 70
r 0.879 0 2 cbr 500 ------- 1 0.0 3.0 73 73
+ 0.879 2 3 cbr 500 ------- 1 0.0 3.0 73 73
- 0.879 2 3 cbr 500 ------- 1 0.0 3.0 73 73
+ 0.88 0 2 cbr 500 ------- 1 0.0 3.0 76 76
- 0.88 0 2 cbr 500 ------- 1 0.0 3.0 76 76
r 0.883 2 3 cbr 500 ------- 1 0.0 3.0 71 71
r 0.884 0 2 cbr 500 ------- 1 0.0 3.0 74 74
+ 0.884 2 3 cbr 500 ------- 1 0.0 3.0 74 74
- 0.884 2 3 cbr 500 ------- 1 0.0 3.0 74 74
+ 0.885 0 2 cbr 500 ------- 1 0.0 3.0 77 77
- 0.885 0 2 cbr 500 ------- 1 0.0 3.0 77 77
r 0.888 2 3 cbr 500 ------- 1 0.0 3.0 72 72
r 0.889 0 2 cbr 500 ------- 1 0.0 3.0 75 75
+ 0.889 2 3 cbr 500 ------- 1 0.0 3.0 75 75
- 0.889 2 3 cbr 500 ------- 1 0.0 3.0 75 75
+ 0.89 0 2 cbr 500 ------- 1 0.0 3.0 78 78
- 0.89 0 2 cbr 500 ------- 1 0.0 3.0 78 78
r 0.893 2 3 cbr 500 ------- 1 0.0 3.0 73 73
r 0.894 0 2 cbr 500 ------- 1 0.0 3.0 76 76
+ 0.894 2 3 cbr 500 ------- 1 0.0 3.0 76 76
- 0.894 2 3 cbr 500 ------- 1 0.0 3.0 76 76
+ 0.895 0 2 cbr 500 ------- 1 0.0 3.0 79 79
- 0.895 0 2 cbr 500 ------- 1 0.0 3.0 79 79
r 0.898 2 3 cbr 500 ------- 1 0.0 3.0 74 74
r 0.899 0 2 cbr 500 ------- 1 0.0 3.0 77 77
+ 0.899 2 3 cbr 500 ------- 1 0.0 3.0 77 77
- 0.899 2 3 cbr 500 ------- 1 0.0 3.0 77 77
+ 0.9 0 2 cbr 500 ------- 1 0.0 3.0 80 80
- 0.9 0 2 cbr 500 ------- 1 0.0 3.0 80 80
r 0.903 2 3 cbr 500 ------- 1 0.0 3.0 75 75
r 0.904 0 2 cbr 500 ------- 1 0.0 3.0 78 78
+ 0.904 2 3 cbr 500 ------- 1 0.0 3.0 78 78
- 0.904 2 3 cbr 500 ------- 1 0.0 3.0 78 78
+ 0.905 0 2 cbr 500 ------- 1 0.0 3.0 81 81
- 0.905 0 2 cbr 500 ------- 1 0.0 3.0 81 81
r 0.908 2 3 cbr 500 ------- 1 0.0 3.0 76 76
r 0.909 0 2 cbr 500 ------- 1 0.0 3.0 79 79
+ 0.909 2 3 cbr 500 ------- 1 0.0 3.0 79 79
- 0.909 2 3 cbr 500 ------- 1 0.0 3.0 79 79
+ 0.91 0 2 cbr 500 ------- 1 0.0 3.0 82 82
- 0.91 0 2 cbr 500 ------- 1 0.0 3.0 82 82
r 0.913 2 3 cbr 500 ------- 1 0.0 3.0 77 77
r 0.914 0 2 cbr 500 ------- 1 0.0 3.0 80 80
+ 0.914 2 3 cbr 500 ------- 1 0.0 3.0 80 80
- 0.914 2 3 cbr 500 ------- 1 0.0 3.0 80 80
+ 0.915 0 2 cbr 500 ------- 1 0.0 3.0 83 83
- 0.915 0 2 cbr 500 ------- 1 0.0 3.0 83 83
r 0.918 2 3 cbr 500 ------- 1 0.0 3.0 78 78
r 0.919 0 2 cbr 500 ------- 1 0.0 3.0 81 81
+ 0.919 2 3 cbr 500 ------- 1 0.0 3.0 81 81
- 0.919 2 3 cbr 500 ------- 1 0.0 3.0 81 81
+ 0.92 0 2 cbr 500 ------- 1 0.0 3.0 84 84
- 0.92 0 2 cbr 500 ------- 1 0.0 3.0 84 84
r 0.923 2 3 cbr 500 ------- 1 0.0 3.0 79 79
r 0.924 0 2 cbr 500 ------- 1 0.0 3.0 82 82
+ 0.924 2 3 cbr 500 ------- 1 0.0 3.0 82 82
- 0.924 2 3 cbr 500 ------- 1 0.0 3.0 82 82
+ 0.925 0 2 cbr 500 ------- 1 0.0 3.0 85 85
- 0.925 0 2 cbr 500 ------- 1 0.0 3.0 85 85
r 0.928 2 3 cbr 500 ------- 1 0.0 3.0 80 80
r 0.929 0 2 cbr 500 ------- 1 0.0 3.0 83 83
+ 0.929 2 3 cbr 500 ------- 1 0.0 3.0 83 83
- 0.929 2 3 cbr 500 ------- 1 0.0 3.0 83 83
+ 0.93 0 2 cbr 500 ------- 1 0.0 3.0 86 86
- 0.93 0 2 cbr 500 ------- 1 0.0 3.0 86 86
r 0.933 2 3 cbr 500 ------- 1 0.0 3.0 81 81
r 0.934 0 2 cbr 500 ------- 1 0.0 3.0 84 84
+ 0.934 2 3 cbr 500 ------- 1 0.0 3.0 84 84
- 0.934 2 3 cbr 500 ------- 1 0.0 3.0 84 84
+ 0.935 0 2 cbr 500 ------- 1 0.0 3.0 87 87
- 0.935 0 2 cbr 500 ------- 1 0.0 3.0 87 87
r 0.938 2 3 cbr 500 ------- 1 0.0 3.0 82 82
r 0.939 0 2 cbr 500 ------- 1 0.0 3.0 85 85
+ 0.939 2 3 cbr 500 ------- 1 0.0 3.0 85 85
- 0.939 2 3 cbr 500 ------- 1 0.0 3.0 85 85
+ 0.94 0 2 cbr 500 ------- 1 0.0 3.0 88 88
- 0.94 0 2 cbr 500 ------- 1 0.0 3.0 88 88
r 0.943 2 3 cbr 500 ------- 1 0.0 3.0 83 83
r 0.944 0 2 cbr 500 ------- 1 0.0 3.0 86 86
+ 0.944 2 3 cbr 500 ------- 1 0.0 3.0 86 86
- 0.944 2 3 cbr 500 ------- 1 0.0 3.0 86 86
+ 0.945 0 2 cbr 500 ------- 1 0.0 3.0 89 89
- 0.945 0 2 cbr 500 ------- 1 0.0 3.0 89 89
r 0.948 2 3 cbr 500 ------- 1 0.0 3.0 84 84
r 0.949 0 2 cbr 500 ------- 1 0.0 3.0 87 87
+ 0.949 2 3 cbr 500 ------- 1 0.0 3.0 87 87
- 0.949 2 3 cbr 500 ------- 1 0.0 3.0 87 87
+ 0.95 0 2 cbr 500 ------- 1 0.0 3.0 90 90
- 0.95 0 2 cbr 500 ------- 1 0.0 3.0 90 90
r 0.953 2 3 cbr 500 ------- 1 0.0 3.0 85 85
r 0.954 0 2 cbr 500 ------- 1 0.0 3.0 88 88
+ 0.954 2 3 cbr 500 ------- 1 0.0 3.0 88 88
- 0.954 2 3 cbr 500 ------- 1 0.0 3.0 88 88
+ 0.955 0 2 cbr 500 ------- 1 0.0 3.0 91 91
- 0.955 0 2 cbr 500 ------- 1 0.0 3.0 91 91
r 0.958 2 3 cbr 500 ------- 1 0.0 3.0 86 86
r 0.959 0 2 cbr 500 ------- 1 0.0 3.0 89 89
+ 0.959 2 3 cbr 500 ------- 1 0.0 3.0 89 89
- 0.959 2 3 cbr 500 ------- 1 0.0 3.0 89 89
+ 0.96 0 2 cbr 500 ------- 1 0.0 3.0 92 92
- 0.96 0 2 cbr 500 ------- 1 0.0 3.0 92 92
r 0.963 2 3 cbr 500 ------- 1 0.0 3.0 87 87
r 0.964 0 2 cbr 500 ------- 1 0.0 3.0 90 90
+ 0.964 2 3 cbr 500 ------- 1 0.0 3.0 90 90
- 0.964 2 3 cbr 500 ------- 1 0.0 3.0 90 90
+ 0.965 0 2 cbr 500 ------- 1 0.0 3.0 93 93
- 0.965 0 2 cbr 500 ------- 1 0.0 3.0 93 93
r 0.968 2 3 cbr 500 ------- 1 0.0 3.0 88 88
r 0.969 0 2 cbr 500 ------- 1 0.0 3.0 91 91
+ 0.969 2 3 cbr 500 ------- 1 0.0 3.0 91 91
- 0.969 2 3 cbr 500 ------- 1 0.0 3.0 91 91
+ 0.97 0 2 cbr 500 ------- 1 0.0 3.0 94 94
- 0.97 0 2 cbr 500 ------- 1 0.0 3.0 94 94
r 0.973 2 3 cbr 500 ------- 1 0.0 3.0 89 89
r 0.974 0 2 cbr 500 ------- 1 0.0 3.0 92 92
+ 0.974 2 3 cbr 500 ------- 1 0.0 3.0 92 92
- 0.974 2 3 cbr 500 ------- 1 0.0 3.0 92 92
+ 0.975 0 2 cbr 500 ------- 1 0.0 3.0 95 95
- 0.975 0 2 cbr 500 ------- 1 0.0 3.0 95 95
r 0.978 2 3 cbr 500 ------- 1 0.0 3.0 90 90
r 0.979 0 2 cbr 500 ------- 1 0.0 3.0 93 93
+ 0.979 2 3 cbr 500 ------- 1 0.0 3.0 93 93
- 0.979 2 3 cbr 500 ------- 1 0.0 3.0 93 93
+ 0.98 0 2 cbr 500 ------- 1 0.0 3.0 96 96
- 0.98 0 2 cbr 500 ------- 1 0.0 3.0 96 96
r 0.983 2 3 cbr 500 ------- 1 0.0 3.0 91 91
r 0.984 0 2 cbr 500 ------- 1 0.0 3.0 94 94
+ 0.984 2 3 cbr 500 ------- 1 0.0 3.0 94 94
- 0.984 2 3 cbr 500 ------- 1 0.0 3.0 94 94
+ 0.985 0 2 cbr 500 ------- 1 0.0 3.0 97 97
- 0.985 0 2 cbr 500 ------- 1 0.0 3.0 97 97
r 0.988 2 3 cbr 500 ------- 1 0.0 3.0 92 92
r 0.989 0 2 cbr 500 ------- 1 0.0 3.0 95 95
+ 0.989 2 3 cbr 500 ------- 1 0.0 3.0 95 95
- 0.989 2 3 cbr 500 ------- 1 0.0 3.0 95 95
+ 0.99 0 2 cbr 500 ------- 1 0.0 3.0 98 98
- 0.99 0 2 cbr 500 ------- 1 0.0 3.0 98 98
r 0.993 2 3 cbr 500 ------- 1 0.0 3.0 93 93
r 0.994 0 2 cbr 500 ------- 1 0.0 3.0 96 96
+ 0.994 2 3 cbr 500 ------- 1 0.0 3.0 96 96
- 0.994 2 3 cbr 500 ------- 1 0.0 3.0 96 96
+ 0.995 0 2 cbr 500 ------- 1 0.0 3.0 99 99
- 0.995 0 2 cbr 500 ------- 1 0.0 3.0 99 99
r 0.998 2 3 cbr 500 ------- 1 0.0 3.0 94 94
r 0.999 0 2 cbr 500 ------- 1 0.0 3.0 97 97
+ 0.999 2 3 cbr 500 ------- 1 0.0 3.0 97 97
- 0.999 2 3 cbr 500 ------- 1 0.0 3.0 97 97
+ 1 1 2 cbr 500 ------- 2 1.0 3.0 0 100
- 1 1 2 cbr 500 ------- 2 1.0 3.0 0 100
+ 1 0 2 cbr 500 ------- 1 0.0 3.0 100 101
- 1 0 2 cbr 500 ------- 1 0.0 3.0 100 101
r 1.003 2 3 cbr 500 ------- 1 0.0 3.0 95 95
r 1.004 0 2 cbr 500 ------- 1 0.0 3.0 98 98
+ 1.004 2 3 cbr 500 ------- 1 0.0 3.0 98 98
- 1.004 2 3 cbr 500 ------- 1 0.0 3.0 98 98
+ 1.005 1 2 cbr 500 ------- 2 1.0 3.0 1 102
- 1.005 1 2 cbr 500 ------- 2 1.0 3.0 1 102
+ 1.005 0 2 cbr 500 ------- 1 0.0 3.0 101 103
- 1.005 0 2 cbr 500 ------- 1 0.0 3.0 101 103
r 1.008 2 3 cbr 500 ------- 1 0.0 3.0 96 96
r 1.009 0 2 cbr 500 ------- 1 0.0 3.0 99 99
+ 1.009 2 3 cbr 500 ------- 1 0.0 3.0 99 99
- 1.009 2 3 cbr 500 ------- 1 0.0 3.0 99 99
+ 1.01 1 2 cbr 500 ------- 2 1.0 3.0 2 104
- 1.01 1 2 cbr 500 ------- 2 1.0 3.0 2 104
+ 1.01 0 2 cbr 500 ------- 1 0.0 3.0 102 105
- 1.01 0 2 cbr 500 ------- 1 0.0 3.0 102 105
r 1.013 2 3 cbr 500 ------- 1 0.0 3.0 97 97
r 1.014 1 2 cbr 500 ------- 2 1.0 3.0 0 100
+ 1.014 2 3 cbr 500 ------- 2 1.0 3.0 0 100
- 1.014 2 3 cbr 500 ------- 2 1.0 3.0 0 100
r 1.014 0 2 cbr 500 ------- 1 0.0 3.0 100 101
+ 1.014 2 3 cbr 500 ------- 1 0.0 3.0 100 101
+ 1.015 1 2 cbr 500 ------- 2 1.0 3.0 3 106
- 1.015 1 2 cbr 500 ------- 2 1.0 3.0 3 106
+ 1.015 0 2 cbr 500 ------- 1 0.0 3.0 103 107
- 1.015 0 2 cbr 500 ------- 1 0.0 3.0 103 107
- 1.018 2 3 cbr 500 ------- 1 0.0 3.0 100 101
r 1.018 2 3 cbr 500 ------- 1 0.0 3.0 98 98
r 1.019 1 2 cbr 500 ------- 2 1.0 3.0 1 102
+ 1.019 2 3 cbr 500 ------- 2 1.0 3.0 1 102
r 1.019 0 2 cbr 500 ------- 1 0.0 3.0 101 103
+ 1.019 2 3 cbr 500 ------- 1 0.0 3.0 101 103
+ 1.02 1 2 cbr 500 ------- 2 1.0 3.0 4 108
- 1.02 1 2 cbr 500 ------- 2 1.0 3.0 4 108
+ 1.02 0 2 cbr 500 ------- 1 0.0 3.0 104 109
- 1.02 0 2 cbr 500 ------- 1 0.0 3.0 104 109
- 1.022 2 3 cbr 500 ------- 2 1.0 3.0 1 102
r 1.023 2 3 cbr 500 ------- 1 0.0 3.0 99 99
r 1.024 1 2 cbr 500 ------- 2 1.0 3.0 2 104
+ 1.024 2 3 cbr 500 ------- 2 1.0 3.0 2 104
r 1.024 0 2 cbr 500 ------- 1 0.0 3.0 102 105
+ 1.024 2 3 cbr 500 ------- 1 0.0 3.0 102 105
+ 1.025 1 2 cbr 500 ------- 2 1.0 3.0 5 110
- 1.025 1 2 cbr 500 ------- 2 1.0 3.0 5 110
+ 1.025 0 2 cbr 500 ------- 1 0.0 3.0 105 111
- 1.025 0 2 cbr 500 ------- 1 0.0 3.0 105 111
- 1.026 2 3 cbr 500 ------- 1 0.0 3.0 101 103
r 1.028 2 3 cbr 500 ------- 2 1.0 3.0 0 100
r 1.029 1 2 cbr 500 ------- 2 1.0 3.0 3 106
+ 1.029 2 3 cbr 500 ------- 2 1.0 3.0 3 106
r 1.029 0 2 cbr 500 ------- 1 0.0 3.0 103 107
+ 1.029 2 3 cbr 500 ------- 1 0.0 3.0 103 107
+ 1.03 1 2 cbr 500 ------- 2 1.0 3.0 6 112
- 1.03 1 2 cbr 500 ------- 2 1.0 3.0 6 112
+ 1.03 0 2 cbr 500 ------- 1 0.0 3.0 106 113
- 1.03 0 2 cbr 500 ------- 1 0.0 3.0 106 113
- 1.03 2 3 cbr 500 ------- 2 1.0 3.0 2 104
r 1.032 2 3 cbr 500 ------- 1 0.0 3.0 100 101
r 1.034 1 2 cbr 500 ------- 2 1.0 3.0 4 108
+ 1.034 2 3 cbr 500 ------- 2 1.0 3.0 4 108
r 1.034 0 2 cbr 500 ------- 1 0.0 3.0 104 109
+ 1.034 2 3 cbr 500 ------- 1 0.0 3.0 104 109
- 1.034 2 3 cbr 500 ------- 1 0.0 3.0 102 105
+ 1.035 1 2 cbr 500 ------- 2 1.0 3.0 7 114
- 1.035 1 2 cbr 500 ------- 2 1.0 3.0 7 114
+ 1.035 0 2 cbr 500 ------- 1 0.0 3.0 107 115
- 1.035 0 2 cbr 500 ------- 1 0.0 3.0 107 115
r 1.036 2 3 cbr 500 ------- 2 1.0 3.0 1 102
- 1.038 2 3 cbr 500 ------- 2 1.0 3.0 3 106
r 1.039 1 2 cbr 500 ------- 2 1.0 3.0 5 110
+ 1.039 2 3 cbr 500 ------- 2 1.0 3.0 5 110
r 1.039 0 2 cbr 500 ------- 1 0.0 3.0 105 111
+ 1.039 2 3 cbr 500 ------- 1 0.0 3.0 105 111
+ 1.04 1 2 cbr 500 ------- 2 1.0 3.0 8 116
- 1.04 1 2 cbr 500 ------- 2 1.0 3.0 8 116
+ 1.04 0 2 cbr 500 ------- 1 0.0 3.0 108 117
- 1.04 0 2 cbr 500 ------- 1 0.0 3.0 108 117
r 1.04 2 3 cbr 500 ------- 1 0.0 3.0 101 103
- 1.042 2 3 cbr 500 ------- 1 0.0 3.0 103 107
r 1.044 1 2 cbr 500 ------- 2 1.0 3.0 6 112
+ 1.044 2 3 cbr 500 ------- 2 1.0 3.0 6 112
r 1.044 0 2 cbr 500 ------- 1 0.0 3.0 106 113
+ 1.044 2 3 cbr 500 ------- 1 0.0 3.0 106 113
r 1.044 2 3 cbr 500 ------- 2 1.0 3.0 2 104
+ 1.045 1 2 cbr 500 ------- 2 1.0 3.0 9 118
- 1.045 1 2 cbr 500 ------- 2 1.0 3.0 9 118
+ 1.045 0 2 cbr 500 ------- 1 0.0 3.0 109 119
- 1.045 0 2 cbr 500 ------- 1 0.0 3.0 109 119
- 1.046 2 3 cbr 500 ------- 2 1.0 3.0 4 108
r 1.048 2 3 cbr 500 ------- 1 0.0 3.0 102 105
r 1.049 1 2 cbr 500 ------- 2 1.0 3.0 7 114
+ 1.049 2 3 cbr 500 ------- 2 1.0 3.0 7 114